 
Create H   file=DZP-H
XC
  HartreeFock
End
  HartreeFock

 *******************************************************************************
 *                                                                             *
 *  --------------------------------                                           *
 *   Amsterdam Modeling Suite (AMS)              2019.302                      *
 *  --------------------------------                                           *
 *                                               r80089 2019-12-11             *
 *                                                                             *
 *                                                                             *
 *                              =================                              *
 *                              |               |                              *
 *                              |     A D F     |                              *
 *                              |               |                              *
 *                              =================                              *
 *                                                                             *
 *                                                                             *
 *   Online information and documentation:  https://www.scm.com/support/       *
 *   E-mail:  support@scm.com   info@scm.com                                   *
 *                                                                             *
 *   Scientific publications using AMS results must be properly referenced     *
 *   See the User Manuals (or the web site) for recommended citations          *
 *   The terms and conditions of the End User License Agreement apply to       *
 *   the use of AMS, https://www.scm.com/license-terms/                        *
 *                                                                             *
 ***********************  x86_64_linux_intel / openmpi  ************************
 
 Licensed to: eScience Center / Amsterdam / NL
 SCM User ID: u17149
  
 ADF 2019.302  RunTime: Apr16-2020 22:42:32  Nodes: 1  Procs: 1

 Temporary files are created in /home/nico/QMCTorch/example/plams_workdir.002/HH_dzp/kid_0.2094642457 (0xEF53)

 Hydrogen (DZP)



 ===========================
 A T T A C H E D   F I L E S
 ===========================
  
 CREATE - Data File:    DZP-H
                        Hydrogen (DZP)



 ===============================
 M O D E L   P A R A M E T E R S
 ===============================
  
 DENSITY FUNCTIONAL POTENTIAL (scf)
    Hybrid:                            HARTREEFOCK                             == Not Default ==

 SPIN  (restricted / unrestr.)
    Molecule:                          Restricted                               

 OTHER ASPECTS
    Relativistic Corrections:          ---                                      

    Nuclear Charge Density Model:      Point Charge Nuclei                      
    Core Treatment:                    Frozen Orbital(s)                        

    Hyperfine or Zeeman Interaction:   ---                                      



 =====================================
 S Y M M E T R Y ,   E L E C T R O N S
 =====================================
  
 Symmetry: ATOM

 Irreducible Representations, including subspecies
 -------------------------------------------------
 S
 P:x  P:y  P:z
 D:z2  D:x2-y2  D:xy  D:xz  D:yz
 F:z3  F:z  F:xyz  F:z2x  F:z2y  F:x  F:y


 Configuration of Valence Electrons
 ==================================

          Occupation Numbers
          -------------------------------------------------
 S        1
 P        0
 D        0
 F        0
          -------------------------------------------------

 Total:   1

 Net Charge: 0 (Nuclei minus Electrons)

 Preset values for MO occupations will be applied through SCF cycle no. 1000000
 Thereafter, the program will assign electrons to MOs that are spatially
 similar to the occupied MOs in a "reference" cycle ("KeepOrbitals").
 The reference cycle is always the PREVIOUS cycle: it will evolve with
 the SCF procedure.



 ================================
 (Slater-type)  F U N C T I O N S  ***  (Basis and Fit)  ***
 ================================
  

 Atom Type    1  (H)
 ==============

 Valence Basis Sets:   3
 -----------------------
   1 S    0.760000
   1 S    1.280000
   2 P    1.250000

 Charge Fitting Sets (for the computation of the Coulomb Potential):  11
 -----------------------------------------------------------------------
   1 S    3.160000
   1 S    2.090000
   1 S    1.380000
   2 S    1.500000
   2 P    4.000000
   2 P    2.650000
   2 P    1.750000
   3 D    4.000000
   3 D    2.500000
   4 F    3.000000
   5 G    4.000000


 BAS: List of all Elementary Cartesian Basis Functions
 =====================================================

 The numbering in the list below (to the right of the function characteristics) is referred
 to in print-outs of MO eigenvectors and Mulliken populations in the BAS representation
 (as contrasted to the SFO representation).

 Notes:
 1. The functions are characterized by a polynomial prefactor (powers of x,y,z and r) and
    an exponential decay factor alpha.
 2. Since the basis sets are specific for an atom TYPE, the individual functions occur on
    all atoms of that type.
 3. The word 'Core' in the left margin signals that it is a Core Function (CF) : not a
    degree of freedom in the valence set, but only used to ensure orthogonalization of
    the other valence basis functions on the frozen Core Orbitals.


 (power of) X  Y  Z  R     Alpha  on Atom
            ==========     =====     ==========

 H                                    1
                                  ---------------------------------------------------------------------------
            0  0  0  0     0.760      1
            0  0  0  0     1.280      2
            1  0  0  0     1.250      3
            0  1  0  0     1.250      4
            0  0  1  0     1.250      5

 Total number of charge fitting functions (nprimf)        50
 Total number of Cartesian basis functions (naos)          5
 Total number of Cartesian core functions  (ncos)          0



 BAS: List of all Elementary Cartesian Basis Functions
 =====================================================

 The numbering in the list below (to the right of the function characteristics) is referred
 to in print-outs of MO eigenvectors and Mulliken populations in the BAS representation
 (as contrasted to the SFO representation).

 Notes:
 1. The functions are characterized by a polynomial prefactor (powers of x,y,z and r) and
    an exponential decay factor alpha.
 2. Since the basis sets are specific for an atom TYPE, the individual functions occur on
    all atoms of that type.
 3. The word 'Core' in the left margin signals that it is a Core Function (CF) : not a
    degree of freedom in the valence set, but only used to ensure orthogonalization of
    the other valence basis functions on the frozen Core Orbitals.


 (power of) X  Y  Z  R     Alpha  on Atom
            ==========     =====     ==========

 H                                    1
                                  ---------------------------------------------------------------------------
            0  0  0  0     0.760      1
            0  0  0  0     1.280      2
            1  0  0  0     1.250      3
            0  1  0  0     1.250      4
            0  0  1  0     1.250      5
1
 ***************************************************************************************************



                                              ***********************
                                              *  T E C H N I C A L  *
                                              ***********************
  



 =============================================================
 P A R A L L E L I Z A T I O N  and  V E C T O R I Z A T I O N
 =============================================================
  
 Nr of parallel processes:                                1
 Maximum vector length in NumInt loops:                 128



 =====================
 S C F   U P D A T E S
 =====================
  
 Max. nr. of cycles:                               300
 Convergence criterion:                              0.0000000100
   secondary criterion:                              0.0000000100

 Mix parameter (when DIIS does not apply):           0.2000000000
 Special mix parameter for the first cycle:          1.0000000000
 Mixed ADIIS+SDIIS will be used                  
    Max number of expansion vectors:                10
    Pure ADIIS when Max([F,P]) is above              0.1000000000
    Pure SDIIS when Max([F,P]) is below              0.0010000000
 Automatic ElectronSmearing (in case of problematic SCF convergence) disabled



 =================
 P R E C I S I O N  ***  (General: NumInt, NeglectFunctionTails, ...)  ***
 =================
  

 NumInt:           Target precision:                12.0000000000
 -------           Initial precision:               10.0000000000
                   Min. precision (optimization):   10.0000000000

 Neglect Functions:          Basis functions:        0.1000000000E-13
 ------------------          Fit functions:          0.1000000000E-13



 ===========================
 L I N E A R   S C A L I N G
 ===========================
  

 Cut-off radii density fit:                        0.1000000000E-97
 Overlap cut-off criterion AO matrix elements:     0.1000000000E-97
 Cut-offs for Coulomb potential and fitted density:0.1000000000E-97
 Cut-off criterion for Coulomb multipole terms:    0.1000000000E-97
 Progressive Convergence parameter:                 0.000000000    
1
 ***************************************************************************************************



                                            ***************************
                                            *  C O M P U T A T I O N  *
                                            ***************************
  

 Number of elements of the density matrix on this node (used, total):        15        15



 ===========================================
 Numerical Integration : Fuzzy Cells (Becke)
 ===========================================
  
 Becke grid quality: VERYGOOD       
  
 Lebedev angular grid order:             min:  13 max:  41
 Nr. of radial points:                   min:  64 max:  64

 Total nr. of points:         64
 Nr. of blocks:                1
 Block length:                64
 Nr. of dummy points:          0


 Test of Precision of the Numerical Integration Grid
 ===================================================

 Integral of the Total Core Density:                   0.00000000000000



 ========================
 Density Fitting (zlmFit)
 ========================
  
 ZlmFit Fit Quality: VERYGOOD       
  
 Max L-expansion:                        min:   0 max:   0
 Nr. of radial interpolation points:     min: 120 max: 120



 ======================
 RI Hartree-Fock Scheme
 ======================
  
 Fit Set Quality     : NORMAL
 Integration Quality : NORMAL
 Threshold Quality   : NORMAL
 Response Quality    : DEFAULT
 Is Range Separated  :  F
 
 RIHartreeFock Dependency: number of modified vectors:           0



 =====
 S C F  ***  ScaSCF  ***
 =====
  

 CYCLE    1
 SCF Error: norm([F,P])=      0.000000000000, max([F,P])=      0.000000000000
 orbitals (Q,E):
 ---------------
 S :1...2            ( 1.00    -0.4983)  ( 0.00     0.1718)
 P :1...1            ( 0.00     0.1562)

 CYCLE    2
 SCF Error: norm([F,P])=      0.094552195655, max([F,P])=      0.094552195655
 orbitals (Q,E):
 ---------------
 S :1...2            ( 1.00    -0.2040)  ( 0.00     0.6189)
 P :1...1            ( 0.00     0.6150)

 CYCLE    3
  SDIIS (wt  0.000): -0.0601  1.0601
 A-DIIS (wt  1.000):  0.0000  1.0000
  DIIS coefficients:  0.0000  1.0000
 SCF Error: norm([F,P])=      0.005358028864, max([F,P])=      0.005358028864
 orbitals (Q,E):
 ---------------
 S :1...2            ( 1.00    -0.2253)  ( 0.00     0.5989)
 P :1...1            ( 0.00     0.5893)

 CYCLE    4
  SDIIS (wt  1.000): -0.0627  1.0627
  DIIS coefficients: -0.0627  1.0627
 SCF Error: norm([F,P])=      0.000316236235, max([F,P])=      0.000316236235
 orbitals (Q,E):
 ---------------
 S :1...2            ( 1.00    -0.2264)  ( 0.00     0.5975)
 P :1...1            ( 0.00     0.5878)

 CYCLE    5
  SDIIS (wt  1.000): -0.0002  1.0002
  DIIS coefficients: -0.0002  1.0002
 SCF Error: norm([F,P])=      0.000000051345, max([F,P])=      0.000000051345
 orbitals (Q,E):
 ---------------
 S :1...2            ( 1.00    -0.2264)  ( 0.00     0.5975)
 P :1...1            ( 0.00     0.5878)

 CYCLE    6
  SDIIS (wt  1.000): -0.0000  1.0000
  DIIS coefficients: -0.0000  1.0000
 SCF Error: norm([F,P])=      0.000000000000, max([F,P])=      0.000000000000
 orbitals (Q,E):
 ---------------
 S :1...2            ( 1.00    -0.2264)  ( 0.00     0.5975)
 P :1...1            ( 0.00     0.5878)

 SCF CONVERGED

 CYCLE    7
1
 ***************************************************************************************************



                                                *******************
                                                *  R E S U L T S  *
                                                *******************
  
  
 Hartree-Fock exchange energy:  -0.130914290776972     
 *** Using FIT density in Focky
  SDIIS (wt  1.000):  0.0001  0.9999
  DIIS coefficients:  0.0001  0.9999
 SCF Error: norm([F,P])=      0.000000000000, max([F,P])=      0.000000000000

 Orbital Energies, per Irrep and Spin:
 ======================================
                        Occup              E (au)              E (eV)       Diff (eV) with prev. cycle
                        -----      --------------------        ------       --------------------------
 S
               1        1.000     -0.22642940734811E+00        -6.161               2.49E-14
               2        0.000      0.59752654806886E+00        16.260
 P
               1        0.000      0.58775060405868E+00        15.994


 Partially Occupied:
               1 S                -0.22642940734811E+00
  
 LUMO :        1 P                 0.58775060405868E+00
  


 Orbital Energies, all Irreps
 ========================================

 Irrep        no.  (spin)   Occup              E (au)                E (eV)
 ---------------------------------------------------------------------------
 S             1             1.00       -0.22642940734811E+00        -6.1615
 P             1             0.00        0.58775060405868E+00        15.9935
 S             2             0.00        0.59752654806886E+00        16.2595


 All Electron Calculation, thus no Orbital Energies of the Core Orbitals are calculated



 =======================================
 M U L L I K E N   P O P U L A T I O N S
 =======================================
  
 The survey below gives for each atom:
 a) the total charge (Z minus electrons)
 b) the net spin polarization (nr of electrons spin-A minus spin-B)
 c) for each spin the atomic electron valence density (integrated) per L-value.

 Atom              Charge    Spin density          S         P         D         F
 ----              ------    ------------       ------    ------    ------    ------
 1 H              -0.0000                       1.0000    0.0000    0.0000    0.0000

 Populations of individual BAS functions
 ----------------------------------------
 1 H            0.8257  0.1743  0.0000  0.0000  0.0000

 Gross Charges per Atom (Z minus electrons)
 ==========================================
            -0.0000
 Net Total: -0.00000000



 =======================================================================
 Electrostatic potential at the Nuclei due to electrons and other nuclei
 =======================================================================
  
         Atom                  Potential
         ----                  ---------
     1)   H                   0.85063976
 
 
 ========================
 No memory problems found
 ========================
 
 Maximum number of active allocate calls:         307
 
 *******************************************************************************

                             A D F   E X I T
 NORMAL TERMINATION



 =================
 Timing Statistics
 =================
  
 Total Used :                     CPU=        0.49      System=        0.08     Elapsed=        0.59

 Calls  Section                     ( Mean, Percentage )
 ---------------------------------------------------------------------------------------------------
     3  ><      ................      0.00    0.14             0.00    4.27             0.00    0.78
     1  INIT    ................      0.09   18.82             0.01   15.26             0.11   19.04
     1  GEOMET  ................      0.02    3.45             0.01    9.80             0.03    4.38
     1  INPUTA  ................      0.01    1.26             0.00    0.42             0.01    1.17
     1  MAINSY  ................      0.01    2.41             0.00    3.96             0.02    2.71
     1  SYMFIT  ................      0.00    0.33             0.00    0.48             0.00    0.39
     1  CORORT  ................      0.00    0.24             0.00    0.34             0.00    0.29
     1  SYMORB  ................      0.00    0.26             0.00    0.37             0.00    0.32
     1  FITINT  ................      0.01    1.66             0.00    2.42             0.01    1.83
     1  CLSMAT  ................      0.00    0.00             0.00    2.57             0.00    0.43
     1  ORTHON  ................      0.00    0.00             0.01    8.29             0.01    1.18
     1  GENPT   ................      0.01    1.92             0.01    7.55             0.02    2.71
     1  PTBAS   ................      0.01    1.13             0.00    0.00             0.01    0.98
     7  FOCKY   ................      0.04   55.80             0.00   27.26             0.04   50.54
     7  FOCKTR  ................      0.00    0.94             0.00    0.90             0.00    0.91
     7  SDIIS   ................      0.00    4.41             0.00    1.78             0.00    4.15
     1  COREPS  ................      0.01    3.04             0.00    4.74             0.02    3.20
     1  POPAN   ................      0.01    1.59             0.00    0.00             0.01    1.45
     1  DEBYE   ................      0.00    0.23             0.00    1.48             0.00    0.41
     1  EXIT PROCEDURE .........      0.01    2.39             0.01    8.11             0.02    3.14


 Currently Open Files (EXIT00)
 ====================

 Unit    Access Format  Status   Type       Ident (file)
 -------------------------------------------------------
   3      SEQ    FORM   TRANSP  NORMAL      LOGFILE
                                          ( logfile )

 ***************************************************************************************************
 (LOGFILE)
 <Apr16-2020> <22:42:32>  ADF 2019.302  RunTime: Apr16-2020 22:42:32  Nodes: 1  Procs: 1
 <Apr16-2020> <22:42:32>  Hydrogen (DZP)
 <Apr16-2020> <22:42:32>  RunType   : CREATE
 <Apr16-2020> <22:42:32>  Net Charge: 0 (Nuclei minus Electrons)
 <Apr16-2020> <22:42:32>  Symmetry  : ATOM
  Coordinates
    Atom         X           Y           Z   (Angstrom)
    1.H         0.000000    0.000000    0.000000
 <Apr16-2020> <22:42:32>  >>>> CORORT
 <Apr16-2020> <22:42:32>  >>>> FITINT
 <Apr16-2020> <22:42:32>  >>>> CLSMAT
 <Apr16-2020> <22:42:32>  >>>> ORTHON
 <Apr16-2020> <22:42:32>  >>>> GENPT
 <Apr16-2020> <22:42:32>  Block Length=  64
 <Apr16-2020> <22:42:32>  >>>> PTBAS
 <Apr16-2020> <22:42:32>  >>>> CYCLE
 <Apr16-2020> <22:42:32>  CalcFitR12Fit
 <Apr16-2020> <22:42:32>  CalcFitCoeff
 <Apr16-2020> <22:42:32>              |Error|         MaxErr       Wt(A-DIIS)
 <Apr16-2020> <22:42:32>      1      0.00000000      0.00000000
 <Apr16-2020> <22:42:32>      2      0.09455220      0.09455220
 <Apr16-2020> <22:42:32>      3      0.00535803      0.00535803    100.0
 <Apr16-2020> <22:42:32>      4      0.00031624      0.00031624      0.0
 <Apr16-2020> <22:42:32>      5      0.00000005      0.00000005      0.0
 <Apr16-2020> <22:42:32>      6      0.00000000      0.00000000      0.0
 <Apr16-2020> <22:42:32>  SCF converged
 <Apr16-2020> <22:42:32>      7      0.00000000      0.00000000      0.0
 <Apr16-2020> <22:42:32>  >>>> POPAN
 <Apr16-2020> <22:42:32>  >>>> DEBYE
 <Apr16-2020> <22:42:32>  NORMAL TERMINATION
 <Apr16-2020> <22:42:32>  END
--------------------------------------------------------------------------
WARNING: Linux kernel CMA support was requested via the
btl_vader_single_copy_mechanism MCA variable, but CMA support is
not available due to restrictive ptrace settings.

The vader shared memory BTL will fall back on another single-copy
mechanism if one is available. This may result in lower performance.

  Local host: nico-VirtualBox
--------------------------------------------------------------------------


 Parallel Execution: Process Information
 ==============================================================================
 Rank   Node Name                              NodeID   MyNodeRank  NodeMaster
    0   nico-VirtualBox                           0          0          0
    1   nico-VirtualBox                           0          1         -1
 ==============================================================================


May use up to 1880MB of RAM as shared memory on node 0
 
units
  length Bohr
end

XC
  HartreeFock
end

atoms
      1         H      0.000000      0.000000     -0.690000
      2         H      0.000000      0.000000      0.690000
end

symmetry nosym

totalenergy

Fragments
H t21.H
End

 *******************************************************************************
 *                                                                             *
 *  --------------------------------                                           *
 *   Amsterdam Modeling Suite (AMS)              2019.302                      *
 *  --------------------------------                                           *
 *                                               r80089 2019-12-11             *
 *                                                                             *
 *                                                                             *
 *                              =================                              *
 *                              |               |                              *
 *                              |     A D F     |                              *
 *                              |               |                              *
 *                              =================                              *
 *                                                                             *
 *                                                                             *
 *   Online information and documentation:  https://www.scm.com/support/       *
 *   E-mail:  support@scm.com   info@scm.com                                   *
 *                                                                             *
 *   Scientific publications using AMS results must be properly referenced     *
 *   See the User Manuals (or the web site) for recommended citations          *
 *   The terms and conditions of the End User License Agreement apply to       *
 *   the use of AMS, https://www.scm.com/license-terms/                        *
 *                                                                             *
 ***********************  x86_64_linux_intel / openmpi  ************************
 
 Licensed to: eScience Center / Amsterdam / NL
 SCM User ID: u17149
  
 ADF 2019.302  RunTime: Apr16-2020 22:42:32  Nodes: 1  Procs: 2

 Temporary files are created in /home/nico/QMCTorch/example/plams_workdir.002/HH_dzp/kid_0.475819683 (0xEF53)


Communication costs MPI_COMM_WORLD:      0.726 usec per message,   0.0067 usec per 8-byte item
Communication costs for intra-node:      0.695 usec per message,   0.0070 usec per 8-byte item

 *** (NO TITLE) ***



 ===========================
 A T T A C H E D   F I L E S
 ===========================
  



 ===============================
 M O D E L   P A R A M E T E R S
 ===============================
  
 DENSITY FUNCTIONAL POTENTIAL (scf)
    Hybrid:                            HARTREEFOCK                             == Not Default ==

 SPIN  (restricted / unrestr.)
    Molecule:                          Restricted                               
    Fragments:                         Restricted                               

 OTHER ASPECTS
    Relativistic Corrections:          ---                                      

    Nuclear Charge Density Model:      Point Charge Nuclei                      
    Core Treatment:                    Frozen Orbital(s)                        

    Hyperfine or Zeeman Interaction:   ---                                      


 Fragment File(s)
 ----------------
 H:
         file : t21.H
         jobid: ADF 2019.302  RunTime: Apr16-2020 22:42:32  Nodes: 1  Procs: 1
         title: Hydrogen (DZP)



                                        ************************************
                                        *  R U N   T Y P E : SINGLE POINT  *
                                        ************************************
  



 ===============
 G E O M E T R Y  ***  Linear Molecule  ***
 ===============
  

 ATOMS
 =====                            X Y Z                    CHARGE
                                (Angstrom)             Nucl     +Core       At.Mass
                       --------------------------    ----------------       -------
    1  H               0.0000    0.0000   -0.3651      1.00      1.00        1.0078
    2  H               0.0000    0.0000    0.3651      1.00      1.00        1.0078


 FRAGMENTS
 =========                                     Atoms in this Fragment     Cart. coord.s (Angstrom)
                                               -------------------------------------------------------
    1  H                                                 1  H            0.0000    0.0000   -0.3651
    2  H                                                 2  H            0.0000    0.0000    0.3651


 Interatomic Distance Matrix (Angstrom)
 --------------------------------------

   1)     0.000
   2)     0.730   0.000



 =====================================
 S Y M M E T R Y ,   E L E C T R O N S
 =====================================
  
 Symmetry: NOSYM

 Irreducible Representations, including subspecies
 -------------------------------------------------
 A


 Configuration of Valence Electrons
 ==================================
 ( determined in the SCF procedure )

 Total:   2

 Net Charge: 0 (Nuclei minus Electrons)

 Aufbau principle for MO occupations will be applied through SCF cycle no.     150
 Thereafter, the program will assign electrons to MOs that are spatially
 similar to the occupied MOs in a "reference" cycle ("KeepOrbitals").
 The reference cycle is always the PREVIOUS cycle: it will evolve with
 the SCF procedure.
1
 ***************************************************************************************************



                                      ****************************************
                                      *  B U I L D : (Fragments, Functions)  *
                                      ****************************************
  



 =======
 S F O s  ***  (Symmetrized Fragment Orbitals)  ***
 =======
  
 SFOs are linear combinations of (valence) Fragment Orbitals (FOs), such that the SFOs transform as the
 irreducible representations of the (molecular) symmetry group. Each SFO is therefore characterized by
 an irrep of the molecule and by a few (or only one) generating FOs.
 The SFOs constitute a symmetry-adapted basis for the Fock matrix. The MO eigenvector coefficients in
 this basis provide a direct interpretation of the MOs in terms of Frontier Orbital Theory.

 The SFOs are combined with auxiliary Core Functions (CFs) to ensure orthogonalization on the (frozen)
 Core Orbitals (COs). The Core-orthogonalized SFOs (CSFOs) constitute the true Fock basis.

 The FOs, and hence also the (C)SFOs are combinations of the elementary basis functions (BAS). The basis
 functions that participate in the description of the SFOs depend on the irrep. The indices of the
 involved functions are printed below for each irrep.
 (The complete list of primitive basis functions is printed in another section)

 Total nr. of (C)SFOs (summation over all irreps) :    10

 NOTE: a (C)SFO that is defined as a combination of more than one FO is usually NOT normalized.



                                       === A ===
 Nr. of SFOs :   10
 Cartesian basis functions that participate in this irrep (total number =    10) :
      1     2     3     4     5     6     7     8     9    10

    SFO  (index         Fragment          Generating    Expansion in Fragment Orbitals
  indx  incl.CFs)   Occup   Orb.Energy   FragmentType  Coeff.   Orbital     on Fragment
 --------------------------------------------------------------------------------------
     1       1      1.000      -0.226 au  H             1.00      1 S               1
                        (      -6.161 eV)
     2       2       --         0.598 au  H             1.00      2 S               1
                        (      16.260 eV)
     3       3       --         0.588 au  H             1.00      1 P:x             1
                        (      15.994 eV)
     4       4       --         0.588 au  H             1.00      1 P:y             1
                        (      15.994 eV)
     5       5       --         0.588 au  H             1.00      1 P:z             1
                        (      15.994 eV)
     6       6      1.000      -0.226 au  H             1.00      1 S               2
                        (      -6.161 eV)
     7       7       --         0.598 au  H             1.00      2 S               2
                        (      16.260 eV)
     8       8       --         0.588 au  H             1.00      1 P:x             2
                        (      15.994 eV)
     9       9       --         0.588 au  H             1.00      1 P:y             2
                        (      15.994 eV)
    10      10       --         0.588 au  H             1.00      1 P:z             2
                        (      15.994 eV)



 ================================
 (Slater-type)  F U N C T I O N S  ***  (Basis and Fit)  ***
 ================================
  

 Atom Type    1  (H)
 ==============

 Valence Basis Sets:   3
 -----------------------
   1 S    0.760000
   1 S    1.280000
   2 P    1.250000

 Charge Fitting Sets (for the computation of the Coulomb Potential):  11
 -----------------------------------------------------------------------
   1 S    3.160000
   1 S    2.090000
   1 S    1.380000
   2 S    1.500000
   2 P    4.000000
   2 P    2.650000
   2 P    1.750000
   3 D    4.000000
   3 D    2.500000
   4 F    3.000000
   5 G    4.000000


 BAS: List of all Elementary Cartesian Basis Functions
 =====================================================

 The numbering in the list below (to the right of the function characteristics) is referred
 to in print-outs of MO eigenvectors and Mulliken populations in the BAS representation
 (as contrasted to the SFO representation).

 Notes:
 1. The functions are characterized by a polynomial prefactor (powers of x,y,z and r) and
    an exponential decay factor alpha.
 2. Since the basis sets are specific for an atom TYPE, the individual functions occur on
    all atoms of that type.
 3. The word 'Core' in the left margin signals that it is a Core Function (CF) : not a
    degree of freedom in the valence set, but only used to ensure orthogonalization of
    the other valence basis functions on the frozen Core Orbitals.


 (power of) X  Y  Z  R     Alpha  on Atom
            ==========     =====     ==========

 H                                    1    2
                                  ---------------------------------------------------------------------------
            0  0  0  0     0.760      1    6
            0  0  0  0     1.280      2    7
            1  0  0  0     1.250      3    8
            0  1  0  0     1.250      4    9
            0  0  1  0     1.250      5   10

 Total number of charge fitting functions (nprimf)       100
 Total number of Cartesian basis functions (naos)         10
 Total number of Cartesian core functions  (ncos)          0

1
 ***************************************************************************************************



                                              ***********************
                                              *  T E C H N I C A L  *
                                              ***********************
  



 =============================================================
 P A R A L L E L I Z A T I O N  and  V E C T O R I Z A T I O N
 =============================================================
  
 Nr of parallel processes:                                2
 Maximum vector length in NumInt loops:                 128



 =====================
 S C F   U P D A T E S
 =====================
  
 Max. nr. of cycles:                               300
 Convergence criterion:                              0.0000010000
   secondary criterion:                              0.0010000000

 Mix parameter (when DIIS does not apply):           0.2000000000
 Mixed ADIIS+SDIIS will be used                  
    Max number of expansion vectors:                10
    Pure ADIIS when Max([F,P]) is above              0.1000000000
    Pure SDIIS when Max([F,P]) is below              0.0010000000
 Automatic ElectronSmearing (in case of problematic SCF convergence) disabled



 =================
 P R E C I S I O N  ***  (General: NumInt, NeglectFunctionTails, ...)  ***
 =================
  

 NumInt:           Target precision:                 4.0000000000
 -------           Initial precision:                4.0000000000
                   Min. precision (optimization):    4.0000000000

 Neglect Functions:          Basis functions:        0.1000000000E-05
 ------------------          Fit functions:          0.1000000000E-05



 ===========================
 L I N E A R   S C A L I N G
 ===========================
  

 Cut-off radii density fit:                        0.1000000000E-07
 Overlap cut-off criterion AO matrix elements:     0.1000000000E-05
 Cut-offs for Coulomb potential and fitted density:0.1000000000E-07
 Cut-off criterion for Coulomb multipole terms:    0.1000000000E-07
 Progressive Convergence parameter:                 0.000000000    
1
 ***************************************************************************************************



                                            ***************************
                                            *  C O M P U T A T I O N  *
                                            ***************************
  

 Number of elements of the density matrix on this node (used, total):        30        55



 ===========================================
 Numerical Integration : Fuzzy Cells (Becke)
 ===========================================
  
 Becke grid quality: NORMAL         
  
 Lebedev angular grid order:             min:  11 max:  23
 Nr. of radial points:                   min:  46 max:  46

 Total nr. of points:      11822
 Nr. of blocks:               93
 Block length:               128
 Nr. of dummy points:         82


 Test of Precision of the Numerical Integration Grid
 ===================================================

 Integral of the Total Core Density:                   0.00000000000000



 ========================
 Density Fitting (zlmFit)
 ========================
  
 ZlmFit Fit Quality: NORMAL         
  
 Max L-expansion:                        min:   5 max:   5
 Nr. of radial interpolation points:     min:  36 max:  36



 ======================
 RI Hartree-Fock Scheme
 ======================
  
 Fit Set Quality     : NORMAL
 Integration Quality : NORMAL
 Threshold Quality   : NORMAL
 Response Quality    : DEFAULT
 Is Range Separated  :  F
 
 RIHartreeFock Dependency: number of modified vectors:           0



 =====
 S C F  ***  ScaSCF  ***
 =====
  
 Initial density matrix is calculated as sum of fragments

 CYCLE    1
 SCF Error: norm([F,P])=      0.413205280189, max([F,P])=      0.217489365372
 orbitals (Q,E):
 ---------------
 A :1...10           ( 2.00    -0.6411)  ( 0.00     0.1050)  ( 0.00     0.3176)  ( 0.00     0.4107)
                     ( 0.00     0.4107)  ( 0.00     0.6892)  ( 0.00     1.1191)  ( 0.00     1.1191)
                     ( 0.00     1.1922)  ( 0.00     2.3810)

 CYCLE    2
 SCF Error: norm([F,P])=      0.068712694233, max([F,P])=      0.032729722376
 orbitals (Q,E):
 ---------------
 A :1...2            ( 2.00    -0.6114)  ( 0.00     0.1814)

 CYCLE    3
  SDIIS (wt  0.000): -0.2064  1.2064
 A-DIIS (wt  1.000):  0.0000  1.0000
  DIIS coefficients:  0.0000  1.0000
 SCF Error: norm([F,P])=      0.011768076045, max([F,P])=      0.005666309545
 orbitals (Q,E):
 ---------------
 A :1...2            ( 2.00    -0.6005)  ( 0.00     0.1879)

 CYCLE    4
  SDIIS (wt  1.000): -0.2150  1.2150
 A-DIIS (wt  0.000):  0.0000  1.0000
  DIIS coefficients: -0.2149  1.2149
 SCF Error: norm([F,P])=      0.002084389588, max([F,P])=      0.001013178644
 orbitals (Q,E):
 ---------------
 A :1...2            ( 2.00    -0.5982)  ( 0.00     0.1892)

 CYCLE    5
  SDIIS (wt  1.000):  0.0510 -0.2897  1.2387
  DIIS coefficients:  0.0510 -0.2897  1.2387
 SCF Error: norm([F,P])=      0.000019196222, max([F,P])=      0.000008400063
 orbitals (Q,E):
 ---------------
 A :1...2            ( 2.00    -0.5982)  ( 0.00     0.1892)

 CYCLE    6
  SDIIS (wt  1.000): -0.0002  0.0016 -0.0094  1.0081
  DIIS coefficients: -0.0002  0.0016 -0.0094  1.0081
 SCF Error: norm([F,P])=      0.000000540599, max([F,P])=      0.000000253279
 orbitals (Q,E):
 ---------------
 A :1...2            ( 2.00    -0.5982)  ( 0.00     0.1892)

 SCF CONVERGED

 CYCLE    7
1
 ***************************************************************************************************



                                                *******************
                                                *  R E S U L T S  *
                                                *******************
  
  
 Hartree-Fock exchange energy:  -0.661639002969335     
 *** Using FIT density in Focky
  SDIIS (wt  1.000): -0.0000 -0.0001  0.0026 -0.7984  1.7959
  DIIS coefficients: -0.0000 -0.0001  0.0026 -0.7984  1.7959
 SCF Error: norm([F,P])=      0.000000002668, max([F,P])=      0.000000001218

 Orbital Energies, per Irrep and Spin:
 ======================================
                        Occup              E (au)              E (eV)       Diff (eV) with prev. cycle
                        -----      --------------------        ------       --------------------------
 A
               1        2.000     -0.59817523766948E+00       -16.277               4.83E-08
               2        0.000      0.18922541839559E+00         5.149
               3        0.000      0.38730448011279E+00        10.539
               4        0.000      0.51286813250852E+00        13.956
               5        0.000      0.51286813251783E+00        13.956
               6        0.000      0.79193642460815E+00        21.550
               7        0.000      0.12188855894993E+01        33.168
               8        0.000      0.12188855895079E+01        33.168
               9        0.000      0.13062949464656E+01        35.546
              10        0.000      0.25802676127587E+01        70.213
  
 HOMO :        1 A                -0.59817523766948E+00
 LUMO :        2 A                 0.18922541839559E+00
  


 All Electron Calculation, thus no Orbital Energies of the Core Orbitals are calculated



 =======================
 T O T A L   E N E R G Y  ***  (contributions)  ***
 =======================
  

*** Note ***

The requirements to the integration accuracy are somewhat higher than for bond energies.
One can expect an accuracy of roughly (accint-2) decimal places, where accint is the
general integration accuracy parameter.
The Coulomb energy is the sum of the Hartree energy (electron-electron Coulomb interaction)
and the nuclear-electron attraction energy. It includes the correction for the first-order
fit error in the Hartree energy.
The potential energy is the sum of the nuclear repulsion energy, the Coulomb energy,
and the exchange-correlation energy.

Kinetic energy           =            1.137461783185

Nuclear repulsion energy =            0.724637681159
Coulomb energy           =           -2.333268954235
XC energy                =           -0.661639002969
Total potential energy   =           -2.270270276045

----------------------------------------------------
Total energy             =           -1.132808492860
Virial theorem           =            1.995909057874
----------------------------------------------------


 Fit test: (difference of exact and fit density, squared integrated, result summed over spins)
         Sum-of-Fragments:                             0.00000000000005
         Orthogonalized Fragments:                     0.00000063509604
         SCF:                                          0.00001326775761



 ==========================
 Electron Density at Nuclei
 ==========================
  
 The electron density is calculated at points on a small sphere around the center of a nucleus.
 The printed electron density is the average electron density on these points.
 The radius of the sphere is the printed approximate finite nuclear radius.

         Atom        Nuclear Radius (Angstrom)             Electron Density (a.u.)
         ----        -------------------------             -----------------------
     1)   H                 0.0000181514                                0.46217
     2)   H                 0.0000181514                                0.46217



 =======================================
 M U L L I K E N   P O P U L A T I O N S
 =======================================
  
 The survey below gives for each atom:
 a) the total charge (Z minus electrons)
 b) the net spin polarization (nr of electrons spin-A minus spin-B)
 c) for each spin the atomic electron valence density (integrated) per L-value.

 Atom              Charge    Spin density          S         P         D         F
 ----              ------    ------------       ------    ------    ------    ------
 1 H               0.0000                       0.9712    0.0288    0.0000    0.0000
 2 H              -0.0000                       0.9712    0.0288    0.0000    0.0000

 Populations of individual BAS functions
 ----------------------------------------
 1 H            0.1729  0.7983  0.0000  0.0000  0.0288
 2 H            0.1729  0.7983  0.0000  0.0000  0.0288

 Gross Charges per Atom (Z minus electrons)
 ==========================================
             0.0000   -0.0000
 Net Total: -0.00000000


 Atom-Atom Population Matrix (off-diagonal elements not doubled)
 ===============================================================

     1 :     0.5636
     2 :     0.4364    0.5636



 =================================================
 H I R S H F E L D   C H A R G E   A N A L Y S I S
 =================================================
  
 For each fragment: the (numerical) integral of rho(scf) * rho(fragment)/rho(sum-of-fragments)
 (nuclear charges are included, electrons are counted negative)

 The fragments and their ordering are defined in the early G E O M E T R Y output section.
 If you use single-atom fragments, this usually implies that all atoms of the same
 chemical type are grouped together. This may not be the order in which you listed them
 in the input file!

    1  H                         0.0000
    2  H                         0.0000

 Sum of these charges (accuracy NumInt/Tails) =           0.00000041



 =============================
 V O R O N O I   C H A R G E S
 =============================
  
 For each atom: the (numerical) integral of the total electronic charge density in its Voronoi cell,
 i.e. the region of space that is closer to that atom than to any other atom.
 (cf. Wigner-Seitz cells in crystals)

 Within the Voronoi cell the subintegrals over the atomic sphere and the remaining part are evaluated
 separately to give the numbers of electrons (negative charge) in these regions.
 The net total charge in the cell (including the nuclear charge) is also given.

 Values are provided for
    a) the Initial (sum-of-fragments) density
    b) the Orthogonalized-Fragments density
    c) the SCF density
    d) the Voronoi Deformation Density (VDD): the difference SCF-Initial for the complete atomic cell


  Atom                Initial                    OrthFrag                   SCF
             Sphere RestCell NetTotal   Sphere RestCell NetTotal   Sphere RestCell NetTotal      VDD
 -----       ------------------------   ------------------------   ------------------------    -----
    1 H      -0.035   -0.965    0.000   -0.048   -0.952    0.000   -0.064   -0.936    0.000    0.000
    2 H      -0.035   -0.965    0.000   -0.048   -0.952    0.000   -0.064   -0.936    0.000    0.000
 ---------------------------------------------------------------------------------------------------
 Total NetCharge:               0.000                      0.000                      0.000    0.000
 (accuracy NumInt/Tails)

 Remark: the 'NetTotal' Voronoi charges often do not match the Mulliken and/or Hirshfeld charges very
 well. This is caused by the fact that chemically different atoms are not treated in accordance with
 their relative sizes. (Voronoi cells are defined by boundary planes halfway between the atoms.)
 However, the CHANGES in charge, comparing 'Initial' to 'SCF' for instance, do give a fair indication
 of the flow of charge caused by the relaxation from sum-of-fragments to self-consistency.

 Warning: the absolute accuracy of the VDD charges obtained using the Fuzzy Cells (Becke) integration
 scheme is much poorer than the one obtained with an 'equivalent' Voronoi integration grid. 



 =================================================================
 M U L T I P O L E   D E R I V E D   C H A R G E   A N A L Y S I S
 =================================================================

 This charge analysis uses the atomic multipoles (obtained from the fitted density) up to some level X,
 and reconstructs these multipoles exactly (up to level X) by distributing charges over all atoms.
 This is achieved by using Lagrange multipliers and a weight function to keep the multipoles local.

 Dummy atoms can be included (by setting INCDUM in MDC-block to 1) to obtain a fractional charge.
 This is generally useful and necessary only for small symmetrical molecules, when there are not
 enough degrees of freedom to reconstruct the multipoles.

 Since the atomic multipoles are reconstructed up to level X,
 the molecular multipoles are represented also up to level X.
 The recommended level is to reconstruct up to quadrupole : -> MDC-q charges.

 See: M. Swart, P.Th. van Duijnen, J.G. Snijders, J.Comput.Chem., (2001), p. 79-88.

 ------------------------------------------------------------- 
 Atomic electronic multipole moments from SCF equations (a.u.)
 ------------------------------------------------------------- 

   atom        charge        dip-x     dip-y     dip-z      quad-xx   quad-xy   quad-xz   quad-yy   quad-yz   quad-zz
 --------------------------------------------------------------------------------------------------------------------
    1 H      0.000000    -0.000000  0.000000 -0.019883    -0.125267  0.000000 -0.000000 -0.125267  0.000000  0.250534
    2 H     -0.000000    -0.000000  0.000000  0.019883    -0.125267  0.000000  0.000000 -0.125267 -0.000000  0.250534

 --------------------------------------- 
 Multipole derived atomic charges (a.u.)
 --------------------------------------- 

 The MDC-m charges are just the Monopole terms in the multipole expansion, while for the MDC-d charges
 also the Dipoles are reconstructed. The usually preferred charges are the MDC-q charges.
 These reconstruct the Monopoles, Dipoles and Quadrupoles (both atomic AND molecular).

        Atom    Level:     MDC-m        MDC-d        MDC-q
 ---------------------------------------------------------
     1     H            0.000000     0.000000     0.000000
     2     H           -0.000000    -0.000000    -0.000000

 ------------------------------------------------ 
 Average absolute deviations in atomic multipoles
 ------------------------------------------------ 

 Stated here are the average differences between the atomic multipoles
 and the reconstructed atomic multipoles (from the distributed charges).
 If these values are not zero, this means there are not enough degrees of freedom,
 to be able to reconstruct the atomic multipoles. (This usually happens only
 for small and/or highly symmetric molecules). If this is the case, one could add
 dummy atoms as extra point charges (and setting INCDUM in MDC-block to 1).

 Level:                                 MDC-d        MDC-q
 ---------------------------------------------------------
 Charge   (a.u.)                       0.0000       0.0000
 Dipole   (Debye)                      0.0000       0.1264
 Quad.    (a.u.)                       0.0927       0.0240

 --------------------------------------- 
 Represented molecular multipole moments
 --------------------------------------- 

 Given here are the Molecular multipole moments from the atomic charges, and from the Fit Density.
 Note that the atomic charges represent the latter, NOT the ones from the Exact density.

            Q (a.u.)             Dipole moment (Debye)                                          Quadrupole moment (a.u.)
                                 x         y         z              xx        xy        xz        yy        yz        zz
------------------------------------------------------------------------------------------------------------------------
MDC-m         0.0000        0.0000    0.0000   -0.0000         -0.0000    0.0000    0.0000   -0.0000    0.0000    0.0000
MDC-d         0.0000        0.0000    0.0000   -0.0000         -0.0000    0.0000    0.0000   -0.0000    0.0000    0.0000
MDC-q         0.0000        0.0000    0.0000   -0.0000         -0.0000    0.0000    0.0000   -0.0000    0.0000    0.0000
 
Fit.Dens.     0.0000       -0.0000    0.0000   -0.0000         -0.2780    0.0000   -0.0000   -0.2780    0.0000    0.5559



 =============
 Dipole Moment  ***  (Debye)  ***
 =============
  
 Vector   :        -0.00000001      0.00000001     -0.00000056
 Magnitude:         0.00000056

 This molecular dipole moment is calculated with analytic integration



 =========================================
 Quadrupole Moment (Buckingham convention)  ***  (a.u.)  ***
 =========================================
  
      quad-xx        quad-xy        quad-xz        quad-yy        quad-yz        quad-zz
     -0.27828523     0.00000000    -0.00000000    -0.27828523     0.00000000     0.55657045

 This molecular quadrupole moment is calculated with analytic integration
1



 ===========================
 B O N D I N G   E N E R G Y  ***  (decomposition)  ***
 ===========================
  
*** IMPORTANT NOTE ***

The bond energy is computed as an energy difference between molecule and
fragments. In particular when the fragments are single atoms, they are usually
computed as SPHERICALLY SYMMETRIC and SPIN-RESTRICTED. Obviously, this usually
does NOT represent the true atomic groundstate.

To obtain the 'real' bond energy, (atomic) correction terms must be applied
for the true (multiplet) fragment ground state. See ref: E.J.Baerends,
V.Branchadell, M.Sodupe, Chem.Phys.Lett.265 (1997) 481

General theoretical background on the bond energy decomposition scheme used
here (Morokuma-Ziegler) can be found in the review paper:
F.M. Bickelhaupt and E.J. Baerends,
"Kohn-Sham Density Functional Theory: Predicting and Understanding Chemistry"
In: Rev. Comput. Chem.; Lipkowitz, K. B. and Boyd, D. B., Eds.;
Wiley-VCH: New York, 2000, Vol. 15, 1-86.

Symbols used in the Bickelhaupt-Baerends (BB) paper are given below to make
the direct connection to that paper, where detailed explanations can be found
on the meaning of the various terms.


                                                   hartree              eV         kcal/mol           kJ/mol
                                      --------------------     -----------       ----------      -----------
  pauli hf:                              0.114076916880902          3.1042            71.58           299.51
  elstat hf:                            -0.161772867783234         -4.4021          -101.51          -424.73

Pauli Repulsion
  Kinetic (Delta T^0):                   0.547272035236045         14.8920           343.42          1436.86
  Delta V^Pauli Coulomb:                -0.108754407805715         -2.9594           -68.24          -285.53
  Delta V^Pauli Hybrid-X:                0.000000000000000          0.0000             0.00             0.00
  Delta V^Pauli Hybrid-C:                0.000000000000000          0.0000             0.00             0.00
  Delta V^Pauli HF-Exchange:            -0.047695950902331         -1.2979           -29.93          -125.23
                                      --------------------     -----------       ----------      -----------
  Total Pauli Repulsion:                 0.390821676527999         10.6348           245.24          1026.10
 (Total Pauli Repulsion =
  Delta E^Pauli in BB paper)

Steric Interaction
  Pauli Repulsion (Delta E^Pauli):       0.390821676527999         10.6348           245.24          1026.10
  Electrostatic Interaction:             0.034243360149517          0.9318            21.49            89.91
 (Electrostatic Interaction =
  Delta V_elstat in the BB paper)
                                      --------------------     -----------       ----------      -----------
  Total Steric Interaction:              0.425065036677516         11.5666           266.73          1116.01
 (Total Steric Interaction =
  Delta E^0 in the BB paper)

Orbital Interactions
  A:                                    -0.843178504530831        -22.9441          -529.10         -2213.76
  HF orbital correction:                 0.000000000833998          0.0000             0.00             0.00
                                      --------------------     -----------       ----------      -----------
  Total Orbital Interactions:           -0.843178503696833        -22.9441          -529.10         -2213.76

Alternative Decomposition Orb.Int.
  Kinetic:                              -0.134578661926360         -3.6621           -84.45          -353.34
  Coulomb:                              -0.356485371257414         -9.7005          -223.70          -935.95
  XC+HF:                                -0.352114470513060         -9.5815          -220.96          -924.48
  XC only:                               0.000000000000000          0.0000             0.00             0.00
  HF Orbital:                           -0.352114470513060         -9.5815          -220.96          -924.48
                                      --------------------     -----------       ----------      -----------
  Total Orbital Interactions:           -0.843178503696833        -22.9441          -529.10         -2213.76

  Residu (E=Steric+OrbInt+Res):         -0.000002106400729         -0.0001            -0.00            -0.01

Total Bonding Energy:                   -0.418115573420046        -11.3775          -262.37         -1097.76


Summary of Bonding Energy (energy terms are taken from the energy decomposition above)
======================================================================================

  Electrostatic Energy:                  0.034243360149517          0.9318            21.49            89.91
  Kinetic Energy:                        0.412693373309686         11.2300           258.97          1083.53
  Coulomb (Steric+OrbInt) Energy:       -0.465241885463858        -12.6599          -291.94         -1221.49
  XC Energy:                            -0.399810421415391        -10.8794          -250.88         -1049.70
                                      --------------------     -----------       ----------      -----------
  Total Bonding Energy:                 -0.418115573420046        -11.3775          -262.37         -1097.76


Correction terms (incorporated in energies above; only for test purposes):

1. Indication of fit-quality: 1st-order fit-correction used in the energy (hartree):   0.0000226278
2. Electrostatic (Fit correction):   0.0000000000
1



 =======================================================
 S F O   P O P U L A T I O N S ,   M O   A N A L Y S I S
 =======================================================
  
 A Mulliken population analysis is performed on (input-)selected MOs. All populations refer to SFOs.
 BAS populations may have been printed directly after the SCF part.


                                       === A ===


 SFO contributions (%) per orbital
 (multiplication by the orbital occupation yields the SFO Gross Populations)

 Orb.:        1      2      3      4      5
 occup:     2.00   0.00   0.00   0.00   0.00
 CF+SFO     ----   ----   ----   ----   ----
 ------
      1:   46.44  87.00   3.64   0.00   0.00
      2:    2.12  -9.10  42.74   0.00   0.00
      3:    0.00   0.00   0.00  48.21   1.79
      4:    0.00   0.00   0.00   1.79  48.21
      5:    1.44 -27.89   3.61   0.00   0.00
      6:   46.44  87.00   3.64  -0.00  -0.00
      7:    2.12  -9.10  42.74   0.00   0.00
      8:    0.00   0.00   0.00  48.21   1.79
      9:    0.00   0.00   0.00   1.79  48.21
     10:    1.44 -27.89   3.61   0.00   0.00


 Summation over all MOs, multiplied by occupation: Total SFO Gross Populations in this Irrep
 ===========================================================================================

     0.93    0.04    0.00    0.00    0.03    0.93    0.04    0.00    0.00    0.03



 List of all MOs, ordered by energy, with the most significant SFO gross populations
 ===================================================================================

 Each percentage contribution in the table below corres ponds to the indicated SFO.
 In general, a SFO may be a linear combination of several Fragment Orbitals on the same,
 or on symmetry-related Fragments. Only the first 'member' of such a combination is
 specified here. A full definition of all SFOs is given in an earlier part of the output.
 The numbering of the SFOs in this table does NOT include the Core Orbitals, and starts
 from one for each symmetry representation, as in the SFO definition list earlier.

       E(eV)  Occ       MO           %     SFO (first member)   E(eV)  Occ   Fragment
 -------------------------------------------------------------------------------------

     -16.277  2.00     1 A         46.44%     1 S              -6.161  1.00     2 H
                                   46.44%     1 S              -6.161  1.00     1 H
                                    2.12%     2 S              16.260  0.00     1 H
                                    2.12%     2 S              16.260  0.00     2 H
                                    1.44%     1 P:z            15.994  0.00     2 H
                                    1.44%     1 P:z            15.994  0.00     1 H
       5.149  0.00     2 A         87.00%     1 S              -6.161  1.00     1 H
                                   87.00%     1 S              -6.161  1.00     2 H
                                  -27.89%     1 P:z            15.994  0.00     2 H
                                  -27.89%     1 P:z            15.994  0.00     1 H
                                   -9.10%     2 S              16.260  0.00     2 H
                                   -9.10%     2 S              16.260  0.00     1 H
      10.539  0.00     3 A         42.74%     2 S              16.260  0.00     1 H
                                   42.74%     2 S              16.260  0.00     2 H
                                    3.64%     1 S              -6.161  1.00     1 H
                                    3.64%     1 S              -6.161  1.00     2 H
                                    3.61%     1 P:z            15.994  0.00     2 H
                                    3.61%     1 P:z            15.994  0.00     1 H
  pauli hf:                              0.114076916880902          3.1042            71.58           299.51
  elstat hf:                            -0.161772867783234         -4.4021          -101.51          -424.73



 =======================================================================
 Electrostatic potential at the Nuclei due to electrons and other nuclei
 =======================================================================
  
         Atom                  Potential
         ----                  ---------
     1)   H                   1.10245079
     2)   H                   1.10245079
 
 
 ========================
 No memory problems found
 ========================
 
 Maximum number of active allocate calls:         397
 
 *******************************************************************************

                             A D F   E X I T
 NORMAL TERMINATION



 =================
 Timing Statistics
 =================
  
 Total Used :                     CPU=        1.38      System=        0.14     Elapsed=        1.93

 Calls  Section                     ( Mean, Percentage )
 ---------------------------------------------------------------------------------------------------
     3  ><      ................      0.00    0.60             0.00    0.01             0.01    1.13
     1  INIT    ................      0.52   37.67             0.02   13.58             0.59   30.80
     1  GEOMET  ................      0.03    2.52             0.00    0.12             0.06    3.29
     1  FRAGM   ................      0.01    0.56             0.01    7.69             0.05    2.60
     1  INPUTA  ................      0.00    0.01             0.00    2.44             0.01    0.46
     1  ATDEN   ................      0.00    0.18             0.00    0.29             0.00    0.19
     1  MAINSY  ................      0.02    1.14             0.00    2.78             0.04    2.05
     1  SYMFIT  ................      0.00    0.12             0.00    0.12             0.00    0.09
     1  CORORT  ................      0.00    0.05             0.00    0.60             0.00    0.10
     1  SYMORB  ................      0.00    0.00             0.00    1.59             0.00    0.14
     1  FITINT  ................      0.00    0.00             0.01    6.80             0.01    0.56
     1  CLSMAT  ................      0.01    0.83             0.01    5.05             0.02    1.04
     1  ORTHON  ................      0.01    0.68             0.00    0.10             0.01    0.54
     1  GENPT   ................      0.05    3.97             0.01    8.82             0.07    3.72
     1  PTBAS   ................      0.02    1.10             0.01    4.79             0.02    1.24
     7  FOCKY   ................      0.06   31.07             0.00   23.78             0.08   29.29
     7  FOCKTR  ................      0.00    0.71             0.00    1.42             0.00    0.62
     7  SDIIS   ................      0.00    2.40             0.00    1.21             0.01    4.57
     1  COREPS  ................      0.02    1.56             0.00    0.08             0.03    1.68
     1  TOTEN   ................      0.13    9.69             0.01    8.13             0.17    8.90
     1  POPAN   ................      0.01    0.56             0.00    0.10             0.03    1.47
     1  DEBYE   ................      0.00    0.22             0.00    0.00             0.00    0.16
     1  INPUTE  ................      0.00    0.07             0.00    0.00             0.01    0.29
     1  SYMORE  ................      0.00    0.11             0.00    0.00             0.00    0.21
     1  METS    ................      0.00    0.24             0.00    0.00             0.00    0.18
     1  CETS    ................      0.01    0.91             0.00    0.00             0.01    0.75
     1  ELNRGY  ................      0.01    0.40             0.00    0.00             0.01    0.28
     1  POPUL   ................      0.02    1.30             0.00    2.61             0.03    1.35
     1  EXIT PROCEDURE .........      0.02    1.33             0.01    7.90             0.04    2.29


 Currently Open Files (EXIT00)
 ====================

 Unit    Access Format  Status   Type       Ident (file)
 -------------------------------------------------------
   3      SEQ    FORM   TRANSP  NORMAL      LOGFILE
                                          ( logfile )

 ***************************************************************************************************
 (LOGFILE)
 <Apr16-2020> <22:42:32>  ADF 2019.302  RunTime: Apr16-2020 22:42:32  Nodes: 1  Procs: 1
 <Apr16-2020> <22:42:32>  Hydrogen (DZP)
 <Apr16-2020> <22:42:32>  RunType   : CREATE
 <Apr16-2020> <22:42:32>  Net Charge: 0 (Nuclei minus Electrons)
 <Apr16-2020> <22:42:32>  Symmetry  : ATOM
  Coordinates
    Atom         X           Y           Z   (Angstrom)
    1.H         0.000000    0.000000    0.000000
 <Apr16-2020> <22:42:32>  >>>> CORORT
 <Apr16-2020> <22:42:32>  >>>> FITINT
 <Apr16-2020> <22:42:32>  >>>> CLSMAT
 <Apr16-2020> <22:42:32>  >>>> ORTHON
 <Apr16-2020> <22:42:32>  >>>> GENPT
 <Apr16-2020> <22:42:32>  Block Length=  64
 <Apr16-2020> <22:42:32>  >>>> PTBAS
 <Apr16-2020> <22:42:32>  >>>> CYCLE
 <Apr16-2020> <22:42:32>  CalcFitR12Fit
 <Apr16-2020> <22:42:32>  CalcFitCoeff
 <Apr16-2020> <22:42:32>              |Error|         MaxErr       Wt(A-DIIS)
 <Apr16-2020> <22:42:32>      1      0.00000000      0.00000000
 <Apr16-2020> <22:42:32>      2      0.09455220      0.09455220
 <Apr16-2020> <22:42:32>      3      0.00535803      0.00535803    100.0
 <Apr16-2020> <22:42:32>      4      0.00031624      0.00031624      0.0
 <Apr16-2020> <22:42:32>      5      0.00000005      0.00000005      0.0
 <Apr16-2020> <22:42:32>      6      0.00000000      0.00000000      0.0
 <Apr16-2020> <22:42:32>  SCF converged
 <Apr16-2020> <22:42:32>      7      0.00000000      0.00000000      0.0
 <Apr16-2020> <22:42:32>  >>>> POPAN
 <Apr16-2020> <22:42:32>  >>>> DEBYE
 <Apr16-2020> <22:42:32>  NORMAL TERMINATION
 <Apr16-2020> <22:42:32>  END
 <Apr16-2020> <22:42:32>  ADF 2019.302  RunTime: Apr16-2020 22:42:32  Nodes: 1  Procs: 2
 <Apr16-2020> <22:42:33>  *** (NO TITLE) ***
 <Apr16-2020> <22:42:33>  RunType   : SINGLE POINT
 <Apr16-2020> <22:42:33>  Net Charge: 0 (Nuclei minus Electrons)
 <Apr16-2020> <22:42:33>  Symmetry  : NOSYM
 <Apr16-2020> <22:42:33>  >>>> FRAGM
  Coordinates
    Atom         X           Y           Z   (Angstrom)
    1.H         0.000000    0.000000   -0.365132
    2.H         0.000000    0.000000    0.365132
 <Apr16-2020> <22:42:33>  >>>> CORORT
 <Apr16-2020> <22:42:33>  >>>> FITINT
 <Apr16-2020> <22:42:33>  >>>> CLSMAT
 <Apr16-2020> <22:42:33>  >>>> ORTHON
 <Apr16-2020> <22:42:33>  >>>> GENPT
 <Apr16-2020> <22:42:33>  Block Length= 128
 <Apr16-2020> <22:42:33>  >>>> PTBAS
 <Apr16-2020> <22:42:33>  >>>> CYCLE
 <Apr16-2020> <22:42:33>  CalcFitR12Fit
 <Apr16-2020> <22:42:33>  CalcFitCoeff
 <Apr16-2020> <22:42:33>              |Error|         MaxErr       Wt(A-DIIS)
 <Apr16-2020> <22:42:33>      1      0.41320528      0.21748937
 <Apr16-2020> <22:42:33>      2      0.06871269      0.03272972
 <Apr16-2020> <22:42:34>      3      0.01176808      0.00566631    100.0
 <Apr16-2020> <22:42:34>      4      0.00208439      0.00101318      0.0
 <Apr16-2020> <22:42:34>      5      0.00001920      0.00000840      0.0
 <Apr16-2020> <22:42:34>      6      0.00000054      0.00000025      0.0
 <Apr16-2020> <22:42:34>  SCF converged
 <Apr16-2020> <22:42:34>      7      0.00000000      0.00000000      0.0
 <Apr16-2020> <22:42:34>   Total energy         -1.13280849 a.u.
 <Apr16-2020> <22:42:34>  >>>> TOTEN
 <Apr16-2020> <22:42:34>  >>>> POPAN
 <Apr16-2020> <22:42:34>  >>>> DEBYE
 <Apr16-2020> <22:42:34>  >>>> AMETS
 <Apr16-2020> <22:42:34>   Bond Energy          -0.41811557 a.u.
 <Apr16-2020> <22:42:34>   Bond Energy         -11.37750364 eV
 <Apr16-2020> <22:42:34>   Bond Energy        -262.37       kcal/mol
 <Apr16-2020> <22:42:34>  >>>> POPUL
 <Apr16-2020> <22:42:34>  NORMAL TERMINATION
 <Apr16-2020> <22:42:34>  END
