2
Properties=species:S:1:pos:R:3:forces:R:3 energy=-1.1549469664851448 pbc="F F F"
H       -0.00006220       0.00016371      -0.36154484      -0.00228690       0.00002327      -0.06469450
H       -0.00038780      -0.00007285       0.36119408      -0.00198507      -0.00181126       0.06786540
