2
Properties=species:S:1:pos:R:3:forces:R:3 energy=-1.1593882640770514 pbc="F F F"
H       -0.00008958      -0.00000280      -0.36005114      -0.00059719      -0.00001867      -0.06700762
H       -0.00753126       0.00175124       0.34909346      -0.05020839       0.01167497      -0.00604360
