2
Properties=species:S:1:pos:R:3:forces:R:3 energy=-1.1601088283229546 pbc="F F F"
H       -0.00030645       0.00039310      -0.36055667      -0.00204301       0.00262068      -0.07037781
H       -0.00113510      -0.00025389       0.35945925      -0.00756733      -0.00169257       0.06306168
